
Predictions were generated on 30-Dec-2022 at 13:08:50 using AeroDyn_driver
 AeroDyn



 Time         Case         HWindSpeedX  HWindSpeedY  HWindSpeedZ  ShearExp     PtfmSurge    PtfmSway     PtfmHeave    PtfmRoll     PtfmPitch    PtfmYaw      Yaw          Azimuth      RotSpeed     BldPitch1    BldPitch2    BldPitch3    RtAeroFxh    RtAeroMxh    B1Azimuth    B2Azimuth    B3Azimuth    AB1N001Fx    AB1N002Fx    AB1N003Fx    AB1N004Fx    AB1N005Fx    AB1N006Fx    AB1N007Fx    AB1N008Fx    AB1N009Fx    AB1N010Fx    AB1N011Fx    AB1N012Fx    AB1N013Fx    AB1N014Fx    AB1N015Fx    AB1N016Fx    AB1N017Fx    AB1N018Fx    AB1N019Fx    AB1N001Fy    AB1N002Fy    AB1N003Fy    AB1N004Fy    AB1N005Fy    AB1N006Fy    AB1N007Fy    AB1N008Fy    AB1N009Fy    AB1N010Fy    AB1N011Fy    AB1N012Fy    AB1N013Fy    AB1N014Fy    AB1N015Fy    AB1N016Fy    AB1N017Fy    AB1N018Fy    AB1N019Fy    AB1N001Vx    AB1N002Vx    AB1N003Vx    AB1N004Vx    AB1N005Vx    AB1N006Vx    AB1N007Vx    AB1N008Vx    AB1N009Vx    AB1N010Vx    AB1N011Vx    AB1N012Vx    AB1N013Vx    AB1N014Vx    AB1N015Vx    AB1N016Vx    AB1N017Vx    AB1N018Vx    AB1N019Vx    AB1N001Vy    AB1N002Vy    AB1N003Vy    AB1N004Vy    AB1N005Vy    AB1N006Vy    AB1N007Vy    AB1N008Vy    AB1N009Vy    AB1N010Vy    AB1N011Vy    AB1N012Vy    AB1N013Vy    AB1N014Vy    AB1N015Vy    AB1N016Vy    AB1N017Vy    AB1N018Vy    AB1N019Vy    AB1N001Vindx AB1N002Vindx AB1N003Vindx AB1N004Vindx AB1N005Vindx AB1N006Vindx AB1N007Vindx AB1N008Vindx AB1N009Vindx AB1N010Vindx AB1N011Vindx AB1N012Vindx AB1N013Vindx AB1N014Vindx AB1N015Vindx AB1N016Vindx AB1N017Vindx AB1N018Vindx AB1N019Vindx AB1N001Vindy AB1N002Vindy AB1N003Vindy AB1N004Vindy AB1N005Vindy AB1N006Vindy AB1N007Vindy AB1N008Vindy AB1N009Vindy AB1N010Vindy AB1N011Vindy AB1N012Vindy AB1N013Vindy AB1N014Vindy AB1N015Vindy AB1N016Vindy AB1N017Vindy AB1N018Vindy AB1N019Vindy AB1N001VRel  AB1N002VRel  AB1N003VRel  AB1N004VRel  AB1N005VRel  AB1N006VRel  AB1N007VRel  AB1N008VRel  AB1N009VRel  AB1N010VRel  AB1N011VRel  AB1N012VRel  AB1N013VRel  AB1N014VRel  AB1N015VRel  AB1N016VRel  AB1N017VRel  AB1N018VRel  AB1N019VRel  AB1N001VDisx AB1N002VDisx AB1N003VDisx AB1N004VDisx AB1N005VDisx AB1N006VDisx AB1N007VDisx AB1N008VDisx AB1N009VDisx AB1N010VDisx AB1N011VDisx AB1N012VDisx AB1N013VDisx AB1N014VDisx AB1N015VDisx AB1N016VDisx AB1N017VDisx AB1N018VDisx AB1N019VDisx AB1N001VDisy AB1N002VDisy AB1N003VDisy AB1N004VDisy AB1N005VDisy AB1N006VDisy AB1N007VDisy AB1N008VDisy AB1N009VDisy AB1N010VDisy AB1N011VDisy AB1N012VDisy AB1N013VDisy AB1N014VDisy AB1N015VDisy AB1N016VDisy AB1N017VDisy AB1N018VDisy AB1N019VDisy AB1N001Alpha AB1N002Alpha AB1N003Alpha AB1N004Alpha AB1N005Alpha AB1N006Alpha AB1N007Alpha AB1N008Alpha AB1N009Alpha AB1N010Alpha AB1N011Alpha AB1N012Alpha AB1N013Alpha AB1N014Alpha AB1N015Alpha AB1N016Alpha AB1N017Alpha AB1N018Alpha AB1N019Alpha AB1N001Theta AB1N002Theta AB1N003Theta AB1N004Theta AB1N005Theta AB1N006Theta AB1N007Theta AB1N008Theta AB1N009Theta AB1N010Theta AB1N011Theta AB1N012Theta AB1N013Theta AB1N014Theta AB1N015Theta AB1N016Theta AB1N017Theta AB1N018Theta AB1N019Theta AB1N001Phi   AB1N002Phi   AB1N003Phi   AB1N004Phi   AB1N005Phi   AB1N006Phi   AB1N007Phi   AB1N008Phi   AB1N009Phi   AB1N010Phi   AB1N011Phi   AB1N012Phi   AB1N013Phi   AB1N014Phi   AB1N015Phi   AB1N016Phi   AB1N017Phi   AB1N018Phi   AB1N019Phi   AB1N001Cl    AB1N002Cl    AB1N003Cl    AB1N004Cl    AB1N005Cl    AB1N006Cl    AB1N007Cl    AB1N008Cl    AB1N009Cl    AB1N010Cl    AB1N011Cl    AB1N012Cl    AB1N013Cl    AB1N014Cl    AB1N015Cl    AB1N016Cl    AB1N017Cl    AB1N018Cl    AB1N019Cl    AB1N001Cd    AB1N002Cd    AB1N003Cd    AB1N004Cd    AB1N005Cd    AB1N006Cd    AB1N007Cd    AB1N008Cd    AB1N009Cd    AB1N010Cd    AB1N011Cd    AB1N012Cd    AB1N013Cd    AB1N014Cd    AB1N015Cd    AB1N016Cd    AB1N017Cd    AB1N018Cd    AB1N019Cd    AB1N001Cm    AB1N002Cm    AB1N003Cm    AB1N004Cm    AB1N005Cm    AB1N006Cm    AB1N007Cm    AB1N008Cm    AB1N009Cm    AB1N010Cm    AB1N011Cm    AB1N012Cm    AB1N013Cm    AB1N014Cm    AB1N015Cm    AB1N016Cm    AB1N017Cm    AB1N018Cm    AB1N019Cm    AB1N001Cn    AB1N002Cn    AB1N003Cn    AB1N004Cn    AB1N005Cn    AB1N006Cn    AB1N007Cn    AB1N008Cn    AB1N009Cn    AB1N010Cn    AB1N011Cn    AB1N012Cn    AB1N013Cn    AB1N014Cn    AB1N015Cn    AB1N016Cn    AB1N017Cn    AB1N018Cn    AB1N019Cn    AB1N001Ct    AB1N002Ct    AB1N003Ct    AB1N004Ct    AB1N005Ct    AB1N006Ct    AB1N007Ct    AB1N008Ct    AB1N009Ct    AB1N010Ct    AB1N011Ct    AB1N012Ct    AB1N013Ct    AB1N014Ct    AB1N015Ct    AB1N016Ct    AB1N017Ct    AB1N018Ct    AB1N019Ct   
 (s)          (-)          (m/s)        (m/s)        (m/s)        (-)          (m)          (m)          (m)          (deg)        (deg)        (deg)        (deg)        (deg)        (rpm)        (deg)        (deg)        (deg)        (N)          (N-m)        (deg)        (deg)        (deg)        (N/m)        (N/m)        (N/m)        (N/m)        (N/m)        (N/m)        (N/m)        (N/m)        (N/m)        (N/m)        (N/m)        (N/m)        (N/m)        (N/m)        (N/m)        (N/m)        (N/m)        (N/m)        (N/m)        (N/m)        (N/m)        (N/m)        (N/m)        (N/m)        (N/m)        (N/m)        (N/m)        (N/m)        (N/m)        (N/m)        (N/m)        (N/m)        (N/m)        (N/m)        (N/m)        (N/m)        (N/m)        (N/m)        (m/s)        (m/s)        (m/s)        (m/s)        (m/s)        (m/s)        (m/s)        (m/s)        (m/s)        (m/s)        (m/s)        (m/s)        (m/s)        (m/s)        (m/s)        (m/s)        (m/s)        (m/s)        (m/s)        (m/s)        (m/s)        (m/s)        (m/s)        (m/s)        (m/s)        (m/s)        (m/s)        (m/s)        (m/s)        (m/s)        (m/s)        (m/s)        (m/s)        (m/s)        (m/s)        (m/s)        (m/s)        (m/s)        (m/s)        (m/s)        (m/s)        (m/s)        (m/s)        (m/s)        (m/s)        (m/s)        (m/s)        (m/s)        (m/s)        (m/s)        (m/s)        (m/s)        (m/s)        (m/s)        (m/s)        (m/s)        (m/s)        (m/s)        (m/s)        (m/s)        (m/s)        (m/s)        (m/s)        (m/s)        (m/s)        (m/s)        (m/s)        (m/s)        (m/s)        (m/s)        (m/s)        (m/s)        (m/s)        (m/s)        (m/s)        (m/s)        (m/s)        (m/s)        (m/s)        (m/s)        (m/s)        (m/s)        (m/s)        (m/s)        (m/s)        (m/s)        (m/s)        (m/s)        (m/s)        (m/s)        (m/s)        (m/s)        (m/s)        (m/s)        (m/s)        (m/s)        (m/s)        (m/s)        (m/s)        (m/s)        (m/s)        (m/s)        (m/s)        (m/s)        (m/s)        (m/s)        (m/s)        (m/s)        (m/s)        (m/s)        (m/s)        (m/s)        (m/s)        (m/s)        (m/s)        (m/s)        (m/s)        (m/s)        (m/s)        (m/s)        (m/s)        (m/s)        (m/s)        (m/s)        (m/s)        (m/s)        (m/s)        (m/s)        (m/s)        (m/s)        (m/s)        (m/s)        (m/s)        (deg)        (deg)        (deg)        (deg)        (deg)        (deg)        (deg)        (deg)        (deg)        (deg)        (deg)        (deg)        (deg)        (deg)        (deg)        (deg)        (deg)        (deg)        (deg)        (deg)        (deg)        (deg)        (deg)        (deg)        (deg)        (deg)        (deg)        (deg)        (deg)        (deg)        (deg)        (deg)        (deg)        (deg)        (deg)        (deg)        (deg)        (deg)        (deg)        (deg)        (deg)        (deg)        (deg)        (deg)        (deg)        (deg)        (deg)        (deg)        (deg)        (deg)        (deg)        (deg)        (deg)        (deg)        (deg)        (deg)        (deg)        (-)          (-)          (-)          (-)          (-)          (-)          (-)          (-)          (-)          (-)          (-)          (-)          (-)          (-)          (-)          (-)          (-)          (-)          (-)          (-)          (-)          (-)          (-)          (-)          (-)          (-)          (-)          (-)          (-)          (-)          (-)          (-)          (-)          (-)          (-)          (-)          (-)          (-)          (-)          (-)          (-)          (-)          (-)          (-)          (-)          (-)          (-)          (-)          (-)          (-)          (-)          (-)          (-)          (-)          (-)          (-)          (-)          (-)          (-)          (-)          (-)          (-)          (-)          (-)          (-)          (-)          (-)          (-)          (-)          (-)          (-)          (-)          (-)          (-)          (-)          (-)          (-)          (-)          (-)          (-)          (-)          (-)          (-)          (-)          (-)          (-)          (-)          (-)          (-)          (-)          (-)          (-)          (-)          (-)          (-)         
      0.0000  1.00000000E+00              1.00000000E+01              0.00000000E+00              0.00000000E+00              1.00000000E-02              0.00000000E+00              0.00000000E+00              0.00000000E+00              0.00000000E+00              0.00000000E+00              0.00000000E+00              0.00000000E+00              0.00000000E+00              1.14440000E+01              0.00000000E+00              0.00000000E+00              0.00000000E+00              6.30024305E+05              3.38479213E+06              0.00000000E+00              1.20000000E+02              2.40000000E+02              1.94896320E+02              3.18804002E+02              5.36606831E+02              7.88160612E+02              1.12273040E+03              1.60847777E+03              1.92286726E+03              2.30482127E+03              2.87866568E+03              3.35587003E+03              4.01251022E+03              4.61903924E+03              4.93652470E+03              5.46907491E+03              6.00048211E+03              6.43246816E+03              6.60216781E+03              5.28913500E+03              5.45530815E+03              6.78251658E+01              1.10932705E+02              1.87733542E+02              2.95640567E+02              4.54279914E+02              5.70778117E+02              5.64579406E+02              5.66061256E+02              5.88486794E+02              5.91319179E+02              6.01363910E+02              6.01011123E+02              6.03880842E+02              6.03418108E+02              6.02419274E+02              6.01271836E+02              5.97582576E+02              5.22787224E+02              5.26663895E+02              9.99214019E+00              9.99362747E+00              9.99653777E+00              9.99936653E+00              1.00027947E+01              1.00067605E+01              1.00105766E+01              1.00142540E+01              1.00178023E+01              1.00212304E+01              1.00245461E+01              1.00277568E+01              1.00308688E+01              1.00338880E+01              1.00368199E+01              1.00392000E+01              1.00410647E+01              1.00428957E+01              1.00437989E+01              1.79590838E+00              3.43222037E+00              6.70472462E+00              9.97722887E+00              1.40679490E+01              1.89767652E+01              2.38855815E+01              2.87943977E+01              3.37032140E+01              3.86120302E+01              4.35208464E+01              4.84296627E+01              5.33384789E+01              5.82472952E+01              6.31561114E+01              6.72468315E+01              7.05193358E+01              7.37918400E+01              7.54280323E+01             -4.61472753E+00             -3.18722528E+00             -2.49015732E+00             -2.44093184E+00             -2.47655798E+00             -2.71472177E+00             -2.50502876E+00             -2.48186598E+00             -2.74151268E+00             -2.81795201E+00             -3.11751935E+00             -3.32161356E+00             -3.13415497E+00             -3.21684437E+00             -3.28741620E+00             -3.32979668E+00             -3.19235567E+00             -2.11024980E+00             -2.13609826E+00              1.64026889E+00              1.10904354E+00              8.71188244E-01              9.15596287E-01              1.00206678E+00              9.63338761E-01              7.35514764E-01              6.09543531E-01              5.60456225E-01              4.96537462E-01              4.67230198E-01              4.32195304E-01              3.83398140E-01              3.54914427E-01              3.30080608E-01              3.11235615E-01              2.88983948E-01              2.08584511E-01              2.06220277E-01              6.38152655E+00              8.18230950E+00              1.06649052E+01              1.32583398E+01              1.68448691E+01              2.12316174E+01              2.57396898E+01              3.03533957E+01              3.50277531E+01              3.97664090E+01              4.45270469E+01              4.93199100E+01              5.41627615E+01              5.89973817E+01              6.38439584E+01              6.78904156E+01              7.11387585E+01              7.44243892E+01              7.60465114E+01              9.99214019E+00              9.99362747E+00              9.99653777E+00              9.99936653E+00              1.00027947E+01              1.00067605E+01              1.00105766E+01              1.00142540E+01              1.00178023E+01              1.00212304E+01              1.00245461E+01              1.00277568E+01              1.00308688E+01              1.00338880E+01              1.00368199E+01              1.00392000E+01              1.00410647E+01              1.00428957E+01              1.00437989E+01              0.00000000E+00              0.00000000E+00              0.00000000E+00              0.00000000E+00              0.00000000E+00              0.00000000E+00              0.00000000E+00              0.00000000E+00              0.00000000E+00              0.00000000E+00              0.00000000E+00              0.00000000E+00              0.00000000E+00              0.00000000E+00              0.00000000E+00              0.00000000E+00              0.00000000E+00              0.00000000E+00              0.00000000E+00              4.41133422E+01              4.29805938E+01              3.14278568E+01              2.14484375E+01              1.32303667E+01              8.60732097E+00              6.79143105E+00              5.35744144E+00              4.19431478E+00              3.89215546E+00              3.56274455E+00              3.62684893E+00              4.19051097E+00              4.31624771E+00              4.54248836E+00              4.80862561E+00              5.15456676E+00              6.01258760E+00              5.86269435E+00              1.33080000E+01              1.33080000E+01              1.33080000E+01              1.33080000E+01              1.33080000E+01              1.14800000E+01              1.01620000E+01              9.01100000E+00              7.79500000E+00              6.54400000E+00              5.36100000E+00              4.18800000E+00              3.12500000E+00              2.31900000E+00              1.52600000E+00              8.63000000E-01              3.70000000E-01              1.06000000E-01              1.06000000E-01              5.74213422E+01              5.62885938E+01              4.47358568E+01              3.47564375E+01              2.65383667E+01              2.00873210E+01              1.69534310E+01              1.43684414E+01              1.19893148E+01              1.04361555E+01              8.92374455E+00              7.81484893E+00              7.31551097E+00              6.63524771E+00              6.06848836E+00              5.67162561E+00              5.52456676E+00              6.11858760E+00              5.96869435E+00              1.83471852E+00              1.85352214E+00              1.91185321E+00              1.81896875E+00              1.52451833E+00              1.32873210E+00              1.10772031E+00              9.89752505E-01              9.75706403E-01              9.38627277E-01              9.54023477E-01              9.60177497E-01              9.19527740E-01              9.33735991E-01              9.59301184E-01              9.89374694E-01              1.02522014E+00              1.10398183E+00              1.09036788E+00              1.44549914E+00              1.40193364E+00              9.09995589E-01              4.60110155E-01              1.20225661E-01              1.27502494E-02              1.14165724E-02              9.84297658E-03              7.41658887E-03              7.25686218E-03              6.66274455E-03              6.72684893E-03              5.47620439E-03              5.52649908E-03              5.61699534E-03              5.72345024E-03              6.31007030E-03              9.12769273E-03              8.64689135E-03              0.00000000E+00              0.00000000E+00              0.00000000E+00              0.00000000E+00              0.00000000E+00              0.00000000E+00              0.00000000E+00              0.00000000E+00              0.00000000E+00              0.00000000E+00              0.00000000E+00              0.00000000E+00              0.00000000E+00              0.00000000E+00              0.00000000E+00              0.00000000E+00              0.00000000E+00              0.00000000E+00              0.00000000E+00              2.32344531E+00              2.31177747E+00              2.10587340E+00              1.86124535E+00              1.51156984E+00              1.31567516E+00              1.10129774E+00              9.86347889E-01              9.73635651E-01              9.36954996E-01              9.52593713E-01              9.58679977E-01              9.17469630E-01              9.31503691E-01              9.56732759E-01              9.86372128E-01              1.02164102E+00              1.09886482E+00              1.08554798E+00              2.39294206E-01              2.38006716E-01              2.20390362E-01              2.36884801E-01              2.31877084E-01              1.86253632E-01              1.19657513E-01              8.26120223E-02              6.39656970E-02              5.64726689E-02              5.26346386E-02              5.40257143E-02              6.17311102E-02              6.47635478E-02              7.03757191E-02              7.72338579E-02              8.58241531E-02              1.06561252E-01              1.02773808E-01
      0.1000  1.00000000E+00              1.00000000E+01              0.00000000E+00              0.00000000E+00              1.00000000E-02              0.00000000E+00              0.00000000E+00              0.00000000E+00              0.00000000E+00              0.00000000E+00              0.00000000E+00              0.00000000E+00              6.86640000E+00              1.14440000E+01              0.00000000E+00              0.00000000E+00              0.00000000E+00              6.30018419E+05              3.38471507E+06              7.95896187E-16              1.20000000E+02              2.40000000E+02              1.94895668E+02              3.18802453E+02              5.36602818E+02              7.88153730E+02              1.12271571E+03              1.60844192E+03              1.92280385E+03              2.30473601E+03              2.87856433E+03              3.35574830E+03              4.01240138E+03              4.61891824E+03              4.93637100E+03              5.46891190E+03              6.00030353E+03              6.43229635E+03              6.60201874E+03              5.28904927E+03              5.45520398E+03              6.78249374E+01              1.10932167E+02              1.87732246E+02              2.95638252E+02              4.54274202E+02              5.70756961E+02              5.64550220E+02              5.66027921E+02              5.88451493E+02              5.91280997E+02              6.01329211E+02              6.00974846E+02              6.03839923E+02              6.03376347E+02              6.02374677E+02              6.01229323E+02              5.97544900E+02              5.22759677E+02              5.26635507E+02              9.99212839E+00              9.99360526E+00              9.99649561E+00              9.99930552E+00              1.00027115E+01              1.00066526E+01              1.00104459E+01              1.00141019E+01              1.00176304E+01              1.00210400E+01              1.00243385E+01              1.00275329E+01              1.00306296E+01              1.00336345E+01              1.00365529E+01              1.00389223E+01              1.00407787E+01              1.00426018E+01              1.00435011E+01              1.79590838E+00              3.43222037E+00              6.70472462E+00              9.97722887E+00              1.40679490E+01              1.89767652E+01              2.38855815E+01              2.87943977E+01              3.37032140E+01              3.86120302E+01              4.35208464E+01              4.84296627E+01              5.33384789E+01              5.82472952E+01              6.31561114E+01              6.72468315E+01              7.05193358E+01              7.37918400E+01              7.54280323E+01             -4.61472742E+00             -3.18722515E+00             -2.49015712E+00             -2.44093156E+00             -2.47655758E+00             -2.71472119E+00             -2.50502810E+00             -2.48186519E+00             -2.74151166E+00             -2.81795079E+00             -3.11751779E+00             -3.32161164E+00             -3.13415287E+00             -3.21684185E+00             -3.28742748E+00             -3.32979306E+00             -3.19237629E+00             -2.11024669E+00             -2.13609481E+00              1.64026889E+00              1.10904354E+00              8.71188244E-01              9.15596287E-01              1.00206678E+00              9.63338761E-01              7.35514764E-01              6.09543531E-01              5.60456225E-01              4.96537462E-01              4.67230198E-01              4.32195304E-01              3.83398140E-01              3.54914427E-01              3.30079271E-01              3.11235615E-01              2.88983053E-01              2.08584511E-01              2.06220277E-01              6.38151670E+00              8.18229113E+00              1.06648757E+01              1.32583052E+01              1.68448321E+01              2.12315805E+01              2.57396518E+01              3.03533581E+01              3.50277176E+01              3.97663747E+01              4.45270149E+01              4.93198798E+01              5.41627313E+01              5.89973527E+01              6.38439277E+01              6.78903885E+01              7.11387281E+01              7.44243582E+01              7.60464807E+01              9.99212839E+00              9.99360526E+00              9.99649561E+00              9.99930552E+00              1.00027115E+01              1.00066526E+01              1.00104459E+01              1.00141019E+01              1.00176304E+01              1.00210400E+01              1.00243385E+01              1.00275329E+01              1.00306296E+01              1.00336345E+01              1.00365529E+01              1.00389223E+01              1.00407787E+01              1.00426018E+01              1.00435011E+01              0.00000000E+00              0.00000000E+00              0.00000000E+00              0.00000000E+00              0.00000000E+00              0.00000000E+00              0.00000000E+00              0.00000000E+00              0.00000000E+00              0.00000000E+00              0.00000000E+00              0.00000000E+00              0.00000000E+00              0.00000000E+00              0.00000000E+00              0.00000000E+00              0.00000000E+00              0.00000000E+00              0.00000000E+00              4.41132857E+01              4.29805080E+01              3.14276966E+01              2.14482218E+01              1.32301148E+01              8.60704899E+00              6.79115399E+00              5.35716485E+00              4.19404145E+00              3.89188748E+00              3.56248258E+00              3.62659347E+00              4.19026228E+00              4.31600561E+00              4.54224012E+00              4.80839540E+00              5.15432105E+00              6.01236502E+00              5.86247381E+00              1.33080000E+01              1.33080000E+01              1.33080000E+01              1.33080000E+01              1.33080000E+01              1.14800000E+01              1.01620000E+01              9.01100000E+00              7.79500000E+00              6.54400000E+00              5.36100000E+00              4.18800000E+00              3.12500000E+00              2.31900000E+00              1.52600000E+00              8.63000000E-01              3.70000000E-01              1.06000000E-01              1.06000000E-01              5.74212857E+01              5.62885080E+01              4.47356966E+01              3.47562218E+01              2.65381148E+01              2.00870490E+01              1.69531540E+01              1.43681649E+01              1.19890414E+01              1.04358875E+01              8.92348258E+00              7.81459347E+00              7.31526228E+00              6.63500561E+00              6.06824012E+00              5.67139540E+00              5.52432105E+00              6.11836502E+00              5.96847381E+00              1.83471946E+00              1.85352357E+00              1.91185233E+00              1.81896444E+00              1.52450574E+00              1.32870490E+00              1.10768540E+00              9.89717101E-01              9.75673057E-01              9.38594047E-01              9.53998328E-01              9.60152973E-01              9.19499637E-01              9.33708634E-01              9.59273134E-01              9.89348680E-01              1.02519754E+00              1.10396447E+00              1.09034759E+00              1.44549697E+00              1.40193034E+00              9.09988198E-01              4.60101207E-01              1.20217651E-01              1.27498686E-02              1.14164616E-02              9.84286594E-03              7.41642487E-03              7.25675499E-03              6.66248258E-03              6.72659347E-03              5.47610491E-03              5.52640225E-03              5.61689605E-03              5.72335816E-03              6.30925946E-03              9.12720305E-03              8.64616359E-03              0.00000000E+00              0.00000000E+00              0.00000000E+00              0.00000000E+00              0.00000000E+00              0.00000000E+00              0.00000000E+00              0.00000000E+00              0.00000000E+00              0.00000000E+00              0.00000000E+00              0.00000000E+00              0.00000000E+00              0.00000000E+00              0.00000000E+00              0.00000000E+00              0.00000000E+00              0.00000000E+00              0.00000000E+00              2.32344470E+00              2.31177662E+00              2.10586941E+00              1.86123896E+00              1.51155677E+00              1.31564910E+00              1.10126364E+00              9.86313029E-01              9.73602687E-01              9.36922100E-01              9.52568836E-01              9.58655727E-01              9.17441864E-01              9.31476678E-01              9.56705093E-01              9.86346508E-01              1.02161880E+00              1.09884792E+00              1.08552812E+00              2.39294127E-01              2.38006640E-01              2.20390324E-01              2.36884548E-01              2.31875354E-01              1.86243693E-01              1.19648170E-01              8.26040655E-02              6.39587770E-02              5.64661382E-02              5.26289818E-02              5.40201437E-02              6.17251737E-02              6.47576496E-02              7.03694516E-02              7.72278059E-02              8.58185486E-02              1.06555652E-01              1.02768281E-01